Comment

5888 atoms
1536 bonds
1792 angles
0 dihedrals
0 impropers

6 atom types
5 bond types
5 angle types
0 dihedral types
0 improper types

      -32.02500        32.02500 xlo xhi
      -32.02500        32.02500 ylo yhi
      -37.10000        37.10000 zlo zhi

Masses

1   40.000  # wat, atom type, mass
2   90.000  # chol
3   90.000  # phos
4   62.000  # glyc
5   62.000  # est
6   42.000  # tail

Atoms

     1  2     -0.17200     -2.50800     18.12400    1  0.70000      0.00000      0.00000      0.00000      5.40000      1.10000  # Atom nr, atom type, x, y, z, mol id, charge, mux, muy, muz, diameter, density
     2  3      1.44300      0.59900     15.62600    1 -0.70000      0.00000      0.00000      0.00000      5.20000      1.20000 
     3  4      3.78020      1.48350     13.88080    1  0.00000     -0.27317      0.14110     -0.12821      4.60000      1.20000 
     4  5      2.76830      3.92470     12.97930    1  0.00000     -0.29854     -0.12079      0.26396      4.60000      1.20000 
     5  6      0.37570      3.40600     10.14030    1  0.00000      0.00000      0.00000      0.00000      4.50000      0.90000 
     6  6      0.19000      3.99530      6.57470    1  0.00000      0.00000      0.00000      0.00000      4.50000      0.90000 
     7  6      0.53230      3.98070      3.25370    1  0.00000      0.00000      0.00000      0.00000      4.50000      0.90000 
     8  6      1.81030      6.24300      0.59270    1  0.00000      0.00000      0.00000      0.00000      4.50000      0.90000 
     9  5      3.94230      1.22730     10.18470    1  0.00000     -0.36907      0.18283      0.06124      4.60000      1.20000 
    10  6      3.00570     -0.00500      7.19170    1  0.00000      0.00000      0.00000      0.00000      4.50000      0.90000 
    11  6      2.18070     -1.38970      3.80230    1  0.00000      0.00000      0.00000      0.00000      4.50000      0.90000 
    12  6      3.17730     -0.40170      0.98370    1  0.00000      0.00000      0.00000      0.00000      4.50000      0.90000 
    13  6      3.03770      2.42600     -2.03800    1  0.00000      0.00000      0.00000      0.00000      4.50000      0.90000 
    14  2      3.15300      5.73400     18.84500    2  0.70000      0.00000      0.00000      0.00000      5.40000      1.10000 
    15  3      3.31000      8.34100     15.26200    2 -0.70000      0.00000      0.00000      0.00000      5.20000      1.20000 
    16  4      0.35500      7.93220     14.31150    2  0.00000     -0.10441     -0.24735      0.19720      4.60000      1.20000 
    17  5     -0.87500      5.46230     13.33570    2  0.00000      0.30110      0.20531     -0.20144      4.60000      1.20000 
    18  6      2.15400      5.59330     10.72570    2  0.00000      0.00000      0.00000      0.00000      4.50000      0.90000 
    19  6      4.28530      6.07430      8.32830    2  0.00000      0.00000      0.00000      0.00000      4.50000      0.90000 
    20  6      4.49030      5.64470      5.05500    2  0.00000      0.00000      0.00000      0.00000      4.50000      0.90000 
    21  6      4.36300      3.61500      2.10230    2  0.00000      0.00000      0.00000      0.00000      4.50000      0.90000 
    22  5     -0.12730      9.09700     11.57530    2  0.00000     -0.06896      0.39815     -0.10058      4.60000      1.20000 
    23  6     -0.33170      9.30370      8.60530    2  0.00000      0.00000      0.00000      0.00000      4.50000      0.90000 
    24  6     -1.85870      7.84930      5.52100    2  0.00000      0.00000      0.00000      0.00000      4.50000      0.90000 
    25  6     -1.67330      5.55930      3.12930    2  0.00000      0.00000      0.00000      0.00000      4.50000      0.90000 
    26  6     -0.62670      3.11800      0.13030    2  0.00000      0.00000      0.00000      0.00000      4.50000      0.90000 
    27  2     -8.11600     -5.99700     16.41900    3  0.70000      0.00000      0.00000      0.00000      5.40000      1.10000 
    28  3     -6.75700     -1.58800     17.42500    3 -0.70000      0.00000      0.00000      0.00000      5.20000      1.20000 
    29  4     -5.96680     -1.86470     13.71950    3  0.00000     -0.28512      0.05046     -0.16471      4.60000      1.20000 
    30  5     -7.99700     -1.07930     12.21570    3  0.00000      0.19128      0.36852      0.03162      4.60000      1.20000 
    31  6     -9.65830     -1.34330     10.03270    3  0.00000      0.00000      0.00000      0.00000      4.50000      0.90000 
    32  6    -10.30300     -2.12000      7.17430    3  0.00000      0.00000      0.00000      0.00000      4.50000      0.90000 
    33  6     -8.32970     -0.92770      4.60930    3  0.00000      0.00000      0.00000      0.00000      4.50000      0.90000 
    34  6     -6.60800     -0.75230      1.04300    3  0.00000      0.00000      0.00000      0.00000      4.50000      0.90000 
    35  5     -4.39270     -3.20100     10.25800    3  0.00000     -0.40209      0.00695      0.10800      4.60000      1.20000 
    36  6     -5.30530     -4.13100      7.35630    3  0.00000      0.00000      0.00000      0.00000      4.50000      0.90000 
    37  6     -7.72870     -6.42330      6.91300    3  0.00000      0.00000      0.00000      0.00000      4.50000      0.90000 
    38  6    -10.25530     -5.25630      4.49870    3  0.00000      0.00000      0.00000      0.00000      4.50000      0.90000 
    39  6    -12.09000     -3.93330      1.83430    3  0.00000      0.00000      0.00000      0.00000      4.50000      0.90000 
    40  2     -8.30300      6.68100     18.04900    4  0.70000      0.00000      0.00000      0.00000      5.40000      1.10000 
    41  3     -6.34700      3.68000     15.69800    4 -0.70000      0.00000      0.00000      0.00000      5.20000      1.20000 
    42  4     -9.44100      3.69320     13.91480    4  0.00000     -0.21378     -0.03953      0.25240      4.60000      1.20000 
    43  5     -7.94170      1.82970     12.22370    4  0.00000     -0.29774      0.16276     -0.24136      4.60000      1.20000 
    44  6     -7.26930      2.64970      8.50100    4  0.00000      0.00000      0.00000      0.00000      4.50000      0.90000 
    45  6     -9.20100      4.23570      5.74630    4  0.00000      0.00000      0.00000      0.00000      4.50000      0.90000 
    46  6    -10.63800      4.66800      2.52500    4  0.00000      0.00000      0.00000      0.00000      4.50000      0.90000 
    47  6     -8.92600      5.45330     -0.35830    4  0.00000      0.00000      0.00000      0.00000      4.50000      0.90000 
    48  5    -11.57030      4.96630     11.40570    4  0.00000     -0.37911      0.08857      0.14772      4.60000      1.20000 
    49  6     -8.67130      6.26900     10.35530    4  0.00000      0.00000      0.00000      0.00000      4.50000      0.90000 
    50  6     -6.62200      7.67830      8.18100    4  0.00000      0.00000      0.00000      0.00000      4.50000      0.90000 
    51  6     -7.01100      8.45070      5.20470    4  0.00000      0.00000      0.00000      0.00000      4.50000      0.90000 
    52  6     -7.92370      9.01130      2.97130    4  0.00000      0.00000      0.00000      0.00000      4.50000      0.90000 
    53  2      0.35200     -7.63400     16.35200    5  0.70000      0.00000      0.00000      0.00000      5.40000      1.10000 
    54  3     -1.82300    -11.02500     17.98500    5 -0.70000      0.00000      0.00000      0.00000      5.20000      1.20000 
    55  4     -1.71070    -12.96950     15.59320    5  0.00000     -0.04981     -0.24350     -0.22181      4.60000      1.20000 
    56  5      1.34930    -12.25470     15.18900    5  0.00000     -0.03961      0.37275      0.18133      4.60000      1.20000 
    57  6      1.80800    -10.83330     12.12570    5  0.00000      0.00000      0.00000      0.00000      4.50000      0.90000 
    58  6      2.85330     -8.50400     10.13030    5  0.00000      0.00000      0.00000      0.00000      4.50000      0.90000 
    59  6      2.45630     -7.59600      7.28900    5  0.00000      0.00000      0.00000      0.00000      4.50000      0.90000 
    60  6      3.54900     -9.21600      5.00830    5  0.00000      0.00000      0.00000      0.00000      4.50000      0.90000 
    61  5     -4.52330    -12.29100     13.48300    5  0.00000      0.30815     -0.26332      0.09540      4.60000      1.20000 
    62  6     -3.12530    -10.08000     11.74630    5  0.00000      0.00000      0.00000      0.00000      4.50000      0.90000 
    63  6     -1.69200    -10.38130      8.71170    5  0.00000      0.00000      0.00000      0.00000      4.50000      0.90000 
    64  6      0.87100    -11.89230      6.04900    5  0.00000      0.00000      0.00000      0.00000      4.50000      0.90000 
    65  6      0.96730    -12.95030      2.40070    5  0.00000      0.00000      0.00000      0.00000      4.50000      0.90000 
    66  2      5.46000     -5.17900     17.66400    6  0.70000      0.00000      0.00000      0.00000      5.40000      1.10000 
    67  3      9.21600     -7.63900     16.42700    6 -0.70000      0.00000      0.00000      0.00000      5.20000      1.20000 
    68  4      7.00870     -8.24030     13.64480    6  0.00000     -0.07528     -0.08323      0.31365      4.60000      1.20000 
    69  5      9.16930    -10.23470     12.84570    6  0.00000      0.27535      0.11004      0.29235      4.60000      1.20000 
    70  6      9.19370    -10.96300     10.06230    6  0.00000      0.00000      0.00000      0.00000      4.50000      0.90000 
    71  6      8.44830     -9.26970      6.97400    6  0.00000      0.00000      0.00000      0.00000      4.50000      0.90000 
    72  6      9.25700     -9.31370      3.67200    6  0.00000      0.00000      0.00000      0.00000      4.50000      0.90000 
    73  6      7.25900     -9.57230      0.42430    6  0.00000      0.00000      0.00000      0.00000      4.50000      0.90000 
    74  5      6.73170     -6.50900     10.90300    6  0.00000      0.06977     -0.38843      0.13283      4.60000      1.20000 
    75  6      6.68030     -5.24900      7.78300    6  0.00000      0.00000      0.00000      0.00000      4.50000      0.90000 
    76  6      5.34130     -4.16200      4.83700    6  0.00000      0.00000      0.00000      0.00000      4.50000      0.90000 
    77  6      3.78070     -6.06630      2.86700    6  0.00000      0.00000      0.00000      0.00000      4.50000      0.90000 
    78  6      2.33030     -9.27830      1.80370    6  0.00000      0.00000      0.00000      0.00000      4.50000      0.90000 
    79  2      8.60800      4.06000     16.86900    7  0.70000      0.00000      0.00000      0.00000      5.40000      1.10000 
    80  3     10.61600      0.18800     17.24200    7 -0.70000      0.00000      0.00000      0.00000      5.20000      1.20000 
    81  4      9.68120     -0.07100     13.85530    7  0.00000     -0.28629      0.08501     -0.14760      4.60000      1.20000 
    82  5     12.03070      0.72630     12.22700    7  0.00000      0.00121     -0.21707     -0.35535      4.60000      1.20000 
    83  6     12.68400      3.69930     11.00100    7  0.00000      0.00000      0.00000      0.00000      4.50000      0.90000 
    84  6     13.85870      4.00630      8.06270    7  0.00000      0.00000      0.00000      0.00000      4.50000      0.90000 
    85  6     12.57970      3.53030      4.94930    7  0.00000      0.00000      0.00000      0.00000      4.50000      0.90000 
    86  6     11.85330      4.71970      1.87570    7  0.00000      0.00000      0.00000      0.00000      4.50000      0.90000 
    87  5      7.13600      1.47770     12.17470    7  0.00000      0.36188      0.16046      0.12917      4.60000      1.20000 
    88  6      7.54430      3.61430     10.42770    7  0.00000      0.00000      0.00000      0.00000      4.50000      0.90000 
    89  6      9.29000      1.38070      8.40770    7  0.00000      0.00000      0.00000      0.00000      4.50000      0.90000 
    90  6     11.09470     -0.69870      5.93300    7  0.00000      0.00000      0.00000      0.00000      4.50000      0.90000 
    91  6     12.93700     -3.29230      3.87900    7  0.00000      0.00000      0.00000      0.00000      4.50000      0.90000 
    92  2     -4.96400     11.62000     17.64400    8  0.70000      0.00000      0.00000      0.00000      5.40000      1.10000 
    93  3     -0.91900     12.32300     16.77200    8 -0.70000      0.00000      0.00000      0.00000      5.20000      1.20000 
    94  4     -0.52350     12.29200     13.08000    8  0.00000     -0.17670     -0.04272      0.27914      4.60000      1.20000 
    95  5     -2.93870     13.61970     12.73700    8  0.00000      0.22564     -0.31609     -0.15023      4.60000      1.20000 
    96  6     -4.72370     14.10670     10.42470    8  0.00000      0.00000      0.00000      0.00000      4.50000      0.90000 
    97  6     -3.85770     14.55100      7.72170    8  0.00000      0.00000      0.00000      0.00000      4.50000      0.90000 
    98  6     -1.64200     17.06630      4.87770    8  0.00000      0.00000      0.00000      0.00000      4.50000      0.90000 
    99  6     -1.42970     17.44070      2.02370    8  0.00000      0.00000      0.00000      0.00000      4.50000      0.90000 
   100  5      1.29630     12.42770      9.76300    8  0.00000      0.38767      0.10952     -0.10541      4.60000      1.20000 
   101  6      0.36170     11.76000      6.19600    8  0.00000      0.00000      0.00000      0.00000      4.50000      0.90000 
   102  6     -2.71830     11.16130      5.17600    8  0.00000      0.00000      0.00000      0.00000      4.50000      0.90000 
   103  6     -5.27270     10.89530      2.69700    8  0.00000      0.00000      0.00000      0.00000      4.50000      0.90000 
   104  6     -5.44300     10.97130     -0.40170    8  0.00000      0.00000      0.00000      0.00000      4.50000      0.90000 
   105  2     -6.53200    -11.22100     17.37200    9  0.70000      0.00000      0.00000      0.00000      5.40000      1.10000 
   106  3     -9.61200    -14.33400     16.83500    9 -0.70000      0.00000      0.00000      0.00000      5.20000      1.20000 
   107  4     -7.15970    -16.53030     17.11220    9  0.00000      0.16013      0.14702      0.25242      4.60000      1.20000 
   108  5     -4.64600    -14.94730     16.91870    9  0.00000     -0.21919     -0.22135     -0.27632      4.60000      1.20000 
   109  6     -3.24370    -15.08030     13.38630    9  0.00000      0.00000      0.00000      0.00000      4.50000      0.90000 
   110  6     -2.58070    -13.44900     10.64530    9  0.00000      0.00000      0.00000      0.00000      4.50000      0.90000 
   111  6     -1.88300    -12.72430      7.29700    9  0.00000      0.00000      0.00000      0.00000      4.50000      0.90000 
   112  6     -2.47570    -13.13130      4.80800    9  0.00000      0.00000      0.00000      0.00000      4.50000      0.90000 
   113  5     -7.86100    -17.51500     14.51130    9  0.00000      0.32328     -0.07446     -0.25167      4.60000      1.20000 
   114  6     -9.18230    -16.02930     11.87800    9  0.00000      0.00000      0.00000      0.00000      4.50000      0.90000 
   115  6     -9.08830    -16.38900      8.60270    9  0.00000      0.00000      0.00000      0.00000      4.50000      0.90000 
   116  6     -8.13300    -15.82030      5.14630    9  0.00000      0.00000      0.00000      0.00000      4.50000      0.90000 
   117  6     -6.32670    -14.28330      2.65630    9  0.00000      0.00000      0.00000      0.00000      4.50000      0.90000 
   118  2    -15.52700      3.04800     17.79900   10  0.70000      0.00000      0.00000      0.00000      5.40000      1.10000 
   119  3    -14.87600     -1.06500     16.39300   10 -0.70000      0.00000      0.00000      0.00000      5.20000      1.20000 
   120  4    -16.57030     -3.02850     14.22970   10  0.00000     -0.15272     -0.00154     -0.29605      4.60000      1.20000 
   121  5    -13.80370     -3.73300     13.15370   10  0.00000      0.24759      0.13371     -0.30694      4.60000      1.20000 
   122  6    -11.94030     -1.90800     11.82600   10  0.00000      0.00000      0.00000      0.00000      4.50000      0.90000 
   123  6    -10.60800      1.56570      9.40430   10  0.00000      0.00000      0.00000      0.00000      4.50000      0.90000 
   124  6    -11.27170      1.70270      6.46670   10  0.00000      0.00000      0.00000      0.00000      4.50000      0.90000 
   125  6    -12.17870      1.17730      3.02530   10  0.00000      0.00000      0.00000      0.00000      4.50000      0.90000 
   126  5    -18.44030     -1.65730     12.07100   10  0.00000      0.17307      0.16420     -0.34129      4.60000      1.20000 
   127  6    -16.16000     -0.27930     10.66100   10  0.00000      0.00000      0.00000      0.00000      4.50000      0.90000 
   128  6    -14.59500     -1.68270      7.80630   10  0.00000      0.00000      0.00000      0.00000      4.50000      0.90000 
   129  6    -14.40700     -3.94970      5.35930   10  0.00000      0.00000      0.00000      0.00000      4.50000      0.90000 
   130  6    -16.05300     -2.61030      2.51730   10  0.00000      0.00000      0.00000      0.00000      4.50000      0.90000 
   131  2      9.91200     11.01600     18.43600   11  0.70000      0.00000      0.00000      0.00000      5.40000      1.10000 
   132  3     12.54600      9.90000     15.31900   11 -0.70000      0.00000      0.00000      0.00000      5.20000      1.20000 
   133  4     11.51200      7.07630     14.00580   11  0.00000     -0.30968     -0.01394      0.12197      4.60000      1.20000 
   134  5     14.15200      5.78800     13.46200   11  0.00000     -0.09398     -0.39699     -0.08341      4.60000      1.20000 
   135  6     14.71500      8.36370     11.46270   11  0.00000      0.00000      0.00000      0.00000      4.50000      0.90000 
   136  6     13.57430     10.72930      9.48300   11  0.00000      0.00000      0.00000      0.00000      4.50000      0.90000 
   137  6     12.27400     11.21970      5.96670   11  0.00000      0.00000      0.00000      0.00000      4.50000      0.90000 
   138  6     13.05900     11.30030      2.71330   11  0.00000      0.00000      0.00000      0.00000      4.50000      0.90000 
   139  5     10.65030      8.01600     11.48330   11  0.00000     -0.11335     -0.06071      0.39605      4.60000      1.20000 
   140  6      9.41330      8.70200      8.93030   11  0.00000      0.00000      0.00000      0.00000      4.50000      0.90000 
   141  6     10.76830      7.23730      6.25930   11  0.00000      0.00000      0.00000      0.00000      4.50000      0.90000 
   142  6     13.88530      7.06430      4.88900   11  0.00000      0.00000      0.00000      0.00000      4.50000      0.90000 
   143  6     16.17800      7.41170      2.04770   11  0.00000      0.00000      0.00000      0.00000      4.50000      0.90000 
   144  2      7.91100    -13.17900     18.14200   12  0.70000      0.00000      0.00000      0.00000      5.40000      1.10000 
   145  3      5.11700    -15.64800     16.19500   12 -0.70000      0.00000      0.00000      0.00000      5.20000      1.20000 
   146  4      6.83530    -17.90280     14.12800   12  0.00000      0.15818     -0.17204     -0.23738      4.60000      1.20000 
   147  5      9.44430    -16.60770     13.65530   12  0.00000     -0.00810     -0.41320      0.05088      4.60000      1.20000 
   148  6     10.69600    -15.20630     11.16970   12  0.00000      0.00000      0.00000      0.00000      4.50000      0.90000 
   149  6      9.97030    -16.43270      8.07400   12  0.00000      0.00000      0.00000      0.00000      4.50000      0.90000 
   150  6     10.27830    -16.03400      4.05400   12  0.00000      0.00000      0.00000      0.00000      4.50000      0.90000 
   151  6      9.53330    -17.24000      0.82300   12  0.00000      0.00000      0.00000      0.00000      4.50000      0.90000 
   152  5      7.69000    -18.42170     10.85530   12  0.00000      0.06696     -0.37745      0.16261      4.60000      1.20000 
   153  6      5.53770    -15.83500      9.97730   12  0.00000      0.00000      0.00000      0.00000      4.50000      0.90000 
   154  6      6.21370    -13.30300      8.48500   12  0.00000      0.00000      0.00000      0.00000      4.50000      0.90000 
   155  6      7.24070    -11.80330      5.36230   12  0.00000      0.00000      0.00000      0.00000      4.50000      0.90000 
   156  6      8.36570    -12.22170      2.08930   12  0.00000      0.00000      0.00000      0.00000      4.50000      0.90000 
   157  2      6.32000     15.79600     16.35700   13  0.70000      0.00000      0.00000      0.00000      5.40000      1.10000 
   158  3      2.46600     14.68200     17.53300   13 -0.70000      0.00000      0.00000      0.00000      5.20000      1.20000 
   159  4      1.73920     17.08780     15.04770   13  0.00000     -0.02247     -0.33224     -0.00923      4.60000      1.20000 
   160  5      0.11070     16.66430     12.44330   13  0.00000     -0.11793      0.34035     -0.20892      4.60000      1.20000 
   161  6      0.23170     15.36870      9.45370   13  0.00000      0.00000      0.00000      0.00000      4.50000      0.90000 
   162  6     -0.46100     14.94400      6.12830   13  0.00000      0.00000      0.00000      0.00000      4.50000      0.90000 
   163  6     -2.16970     14.84700      2.30300   13  0.00000      0.00000      0.00000      0.00000      4.50000      0.90000 
   164  6     -3.36430     16.70200     -0.81200   13  0.00000      0.00000      0.00000      0.00000      4.50000      0.90000 
   165  5      3.99200     18.40970     12.71200   13  0.00000     -0.22309     -0.12306     -0.32936      4.60000      1.20000 
   166  6      4.93570     17.18130     10.23930   13  0.00000      0.00000      0.00000      0.00000      4.50000      0.90000 
   167  6      4.52530     15.64770      6.94900   13  0.00000      0.00000      0.00000      0.00000      4.50000      0.90000 
   168  6      4.00770     15.94300      3.62000   13  0.00000      0.00000      0.00000      0.00000      4.50000      0.90000 
   169  6      2.38730     18.61930      1.63300   13  0.00000      0.00000      0.00000      0.00000      4.50000      0.90000 
   170  2     17.90700     -3.33100     16.48700   14  0.70000      0.00000      0.00000      0.00000      5.40000      1.10000 
   171  3     13.82600     -3.08400     17.54900   14 -0.70000      0.00000      0.00000      0.00000      5.20000      1.20000 
   172  4     13.74950     -1.46850     14.61720   14  0.00000     -0.07840      0.29824     -0.12601      4.60000      1.20000 
   173  5     12.22330     -3.43330     12.70170   14  0.00000     -0.26189     -0.09885     -0.30828      4.60000      1.20000 
   174  6     12.54330     -3.26630      9.46070   14  0.00000      0.00000      0.00000      0.00000      4.50000      0.90000 
   175  6     14.89370     -2.10430      6.61830   14  0.00000      0.00000      0.00000      0.00000      4.50000      0.90000 
   176  6     16.06300     -1.97730      3.33070   14  0.00000      0.00000      0.00000      0.00000      4.50000      0.90000 
   177  6     17.73400     -2.84570      0.55370   14  0.00000      0.00000      0.00000      0.00000      4.50000      0.90000 
   178  5     16.18430     -0.11930     12.64230   14  0.00000      0.39118     -0.09560      0.10599      4.60000      1.20000 
   179  6     17.42430     -1.90600     10.89930   14  0.00000      0.00000      0.00000      0.00000      4.50000      0.90000 
   180  6     17.01370     -4.19870      8.65370   14  0.00000      0.00000      0.00000      0.00000      4.50000      0.90000 
   181  6     17.56570     -6.81130      5.11100   14  0.00000      0.00000      0.00000      0.00000      4.50000      0.90000 
   182  6     16.60230     -8.67170      3.26200   14  0.00000      0.00000      0.00000      0.00000      4.50000      0.90000 
   183  2    -13.03600     -8.42200     17.50900   15  0.70000      0.00000      0.00000      0.00000      5.40000      1.10000 
   184  3    -17.11300     -6.53700     16.87800   15 -0.70000      0.00000      0.00000      0.00000      5.20000      1.20000 
   185  4    -18.49900     -8.28280     14.08720   15  0.00000     -0.04879     -0.24145     -0.22426      4.60000      1.20000 
   186  5    -17.92230    -10.92000     14.32170   15  0.00000      0.37631      0.16688      0.06272      4.60000      1.20000 
   187  6    -15.45800    -12.04000     12.05530   15  0.00000      0.00000      0.00000      0.00000      4.50000      0.90000 
   188  6    -16.37800    -14.31800      8.44830   15  0.00000      0.00000      0.00000      0.00000      4.50000      0.90000 
   189  6    -17.85070    -12.00930      5.37070   15  0.00000      0.00000      0.00000      0.00000      4.50000      0.90000 
   190  6    -17.93270     -8.96830      4.39100   15  0.00000      0.00000      0.00000      0.00000      4.50000      0.90000 
   191  5    -18.53630     -7.12970     10.42400   15  0.00000      0.38523     -0.14378      0.06569      4.60000      1.20000 
   192  6    -15.84300     -6.57400      9.25400   15  0.00000      0.00000      0.00000      0.00000      4.50000      0.90000 
   193  6    -14.26000     -8.81100      7.75970   15  0.00000      0.00000      0.00000      0.00000      4.50000      0.90000 
   194  6    -13.70770     -9.59100      4.53970   15  0.00000      0.00000      0.00000      0.00000      4.50000      0.90000 
   195  6    -14.21100     -8.66770      1.62800   15  0.00000      0.00000      0.00000      0.00000      4.50000      0.90000 
   196  2     -1.55000    -19.76800     17.87300   16  0.70000      0.00000      0.00000      0.00000      5.40000      1.10000 
   197  3     -0.20700    -16.18500     16.54000   16 -0.70000      0.00000      0.00000      0.00000      5.20000      1.20000 
   198  4      1.67900    -15.68550     13.70970   16  0.00000      0.31094     -0.06953      0.09723      4.60000      1.20000 
   199  5      1.67730    -13.80130     11.21370   16  0.00000     -0.15375     -0.17536      0.34497      4.60000      1.20000 
   200  6      1.35730    -14.27330      8.50400   16  0.00000      0.00000      0.00000      0.00000      4.50000      0.90000 
   201  6      3.23030    -14.16570      5.74030   16  0.00000      0.00000      0.00000      0.00000      4.50000      0.90000 
   202  6      2.99330    -15.06370      1.98230   16  0.00000      0.00000      0.00000      0.00000      4.50000      0.90000 
   203  6      3.19430    -13.20930     -1.00930   16  0.00000      0.00000      0.00000      0.00000      4.50000      0.90000 
   204  5      1.63630    -18.32570     11.77500   16  0.00000      0.30416     -0.28144     -0.04094      4.60000      1.20000 
   205  6     -0.00330    -19.74130      9.76270   16  0.00000      0.00000      0.00000      0.00000      4.50000      0.90000 
   206  6      0.11670    -18.82300      6.29870   16  0.00000      0.00000      0.00000      0.00000      4.50000      0.90000 
   207  6      1.74370    -19.17800      2.96570   16  0.00000      0.00000      0.00000      0.00000      4.50000      0.90000 
   208  6      3.14130    -21.60030      1.09300   16  0.00000      0.00000      0.00000      0.00000      4.50000      0.90000 
   209  2    -14.34700      7.51700     17.74200   17  0.70000      0.00000      0.00000      0.00000      5.40000      1.10000 
   210  3    -16.30800     11.61400     16.42100   17 -0.70000      0.00000      0.00000      0.00000      5.20000      1.20000 
   211  4    -14.17130     10.81330     13.54150   17  0.00000      0.18826     -0.19118     -0.19743      4.60000      1.20000 
   212  5    -15.61000     13.39530     11.07100   17  0.00000     -0.08353     -0.39118     -0.11573      4.60000      1.20000 
   213  6    -15.22630     11.52900      8.92270   17  0.00000      0.00000      0.00000      0.00000      4.50000      0.90000 
   214  6    -12.52670     11.66230      6.03770   17  0.00000      0.00000      0.00000      0.00000      4.50000      0.90000 
   215  6    -11.75470     11.29400      2.91930   17  0.00000      0.00000      0.00000      0.00000      4.50000      0.90000 
   216  6     -9.57770      9.23830      1.09070   17  0.00000      0.00000      0.00000      0.00000      4.50000      0.90000 
   217  5    -13.86170      7.76670     12.28830   17  0.00000      0.37133     -0.18836      0.00542      4.60000      1.20000 
   218  6    -15.88200      6.06370     10.35130   17  0.00000      0.00000      0.00000      0.00000      4.50000      0.90000 
   219  6    -17.03370      7.64730      8.32200   17  0.00000      0.00000      0.00000      0.00000      4.50000      0.90000 
   220  6    -16.29330      7.59730      4.72000   17  0.00000      0.00000      0.00000      0.00000      4.50000      0.90000 
   221  6    -13.53900      6.99300      3.18130   17  0.00000      0.00000      0.00000      0.00000      4.50000      0.90000 
   222  2     12.70300    -12.52300     18.35800   18  0.70000      0.00000      0.00000      0.00000      5.40000      1.10000 
   223  3     15.49200    -10.08100     15.86900   18 -0.70000      0.00000      0.00000      0.00000      5.20000      1.20000 
   224  4     17.81020    -10.43080     13.74530   18  0.00000     -0.26975      0.17859      0.07944      4.60000      1.20000 
   225  5     17.98870     -7.32030     13.80400   18  0.00000      0.32728      0.24118      0.09005      4.60000      1.20000 
   226  6     16.16430     -7.24900     10.67170   18  0.00000      0.00000      0.00000      0.00000      4.50000      0.90000 